 +-------------------------------------------------+
 |                                                 |
 |      CCC   AA    SSS  TTTTT  EEEEE  PPPP        |
 |     C     A  A  S       T    E      P   P       |
 |     C     AAAA   SS     T    EEE    PPPP        |
 |     C     A  A     S    T    E      P           |
 |      CCC  A  A  SSS     T    EEEEE  P           |
 |                                                 |
 +-------------------------------------------------+
 |                                                 |
 | Welcome to Academic Release CASTEP version 16.11|          
 | Ab Initio Total Energy Program                  |
 |                                                 |
 | Authors:                                        |
 | M. Segall, M. Probert, C. Pickard, P. Hasnip,   |
 | S. Clark, K. Refson, J. R. Yates, M. Payne      |
 |                                                 |
 | Contributors:                                   |
 | P. Lindan, P. Haynes, J. White, V. Milman,      |
 | N. Govind, M. Gibson, P. Tulip, V. Cocula,      |
 | B. Montanari, D. Quigley, M. Glover,            |
 | L. Bernasconi, A. Perlov, M. Plummer,           |
 | E. McNellis, J. Meyer, J. Gale, D. Jochym       |
 | J. Aarons, B. Walker, R. Gillen, D. Jones       |
 | T. Green, I. J. Bush, C. J. Armstrong,          |
 | E. J. Higgins, E. L. Brown, M. S. McFly         |
 |                                                 |
 | Copyright (c) 2000 - 2015                       |
 |                                                 |
 |     Distributed under the terms of an           |
 |     Agreement between the United Kingdom        |
 |     Car-Parrinello (UKCP) Consortium,           |
 |     Daresbury Laboratory and Accelrys, Inc.     |
 |                                                 |
 | Please cite                                     |
 |                                                 |
 |     "First principles methods using CASTEP"     |
 |                                                 |
 |         Zeitschrift fuer Kristallographie       |
 |           220(5-6) pp. 567-570 (2005)           |
 |                                                 |
 | S. J. Clark, M. D. Segall, C. J. Pickard,       |
 | P. J. Hasnip, M. J. Probert, K. Refson,         |
 | M. C. Payne                                     |
 |                                                 |
 |       in all publications arising from          |
 |              your use of CASTEP                 |
 |                                                 |
 +-------------------------------------------------+
 
 
 Compiled for linux_x86_64_ifort15-XT on Mon, 23 May 2016 18:22:11 +0100
 from code version 
 203e84763863+ Castep161_branch Fri, 04 Mar 2016 19:21:07 +0000
 Compiler: Intel Fortran 15.0.2.164; Optimisation: fast
 MATHLIBS: Intel MKL(11.2.2) (LAPACK version 3.5.0)
 FFT Lib : fftw3 version commercial-fftw-3.3.4-sse2-avx
 Fundamental constants values: CODATA 2010
 
 Run started: Mon, 30 Jan 2017 08:46:40 +0000
 Info: number of up-spin electrons is not equal to the
       number of down-spins but spin_polarized=false
     - consider setting spin_polarized=true.
 
 Atomic calculation performed for Al: 1s2 2s2 2p6 3s2 3p1
 
 Converged in 54 iterations to an ae energy of -6603.782 eV
 
   ============================================================                
   | Pseudopotential Report - Date of generation 30-01-2017   |                
   ------------------------------------------------------------                
   | Element: Al Ionic charge:  3.00 Level of theory: PBE     |                
   | Atomic Solver: Koelling-Harmon                           |                
   |                                                          |                
   |               Reference Electronic Structure             |                
   |         Orbital         Occupation         Energy        |                
   |            3s              2.000           -0.285        |                
   |            3p              1.000           -0.100        |                
   |                                                          |                
   |                 Pseudopotential Definition               |                
   |        Beta     l      e      Rc     scheme   norm       |                
   |          1      0   -0.285   2.000     qc      0         |                
   |          2      0    0.250   2.000     qc      0         |                
   |          3      1   -0.100   2.000     qc      0         |                
   |          4      1    0.250   2.000     qc      0         |                
   |          5      2    0.000   2.000     qc      0         |                
   |          6      2    0.250   2.000     qc      0         |                
   |         loc     3    0.000   2.000     pn      0         |                
   |                                                          |                
   | Augmentation charge Rinner = 1.398                       |                
   | Partial core correction Rc = 1.398                       |                
   ------------------------------------------------------------                
   | "3|2.0|4|4|5|30:31:32"                                   |                
   ------------------------------------------------------------                
   |      Author: Chris J. Pickard, Cambridge University      |                
   ============================================================                
 
 Pseudo atomic calculation performed for Al 3s2 3p1
 
 Converged in 14 iterations to a total energy of -107.1299 eV
 
 Calculation parallelised over 12 processes.
 Data is distributed by k-point(12-way)

 ************************************ Title ************************************
 

 ***************************** General Parameters ******************************
  
 output verbosity                               : normal  (1)
 write checkpoint data to                       : A1.check
 type of calculation                            : single point energy
 stress calculation                             : on
 density difference calculation                 : off
 electron localisation func (ELF) calculation   : off
 Hirshfeld analysis                             : off
 unlimited duration calculation
 timing information                             : on
 memory usage estimate                          : on
 write final potential to formatted file        : off
 write final density to formatted file          : on
 write BibTeX reference list                    : on
 write OTFG pseudopotential files               : on
 checkpoint writing                             : both castep_bin and check files
  
 output         length unit                     : A
 output           mass unit                     : amu
 output           time unit                     : ps
 output         charge unit                     : e
 output           spin unit                     : hbar/2
 output         energy unit                     : eV
 output          force unit                     : eV/A
 output       velocity unit                     : A/ps
 output       pressure unit                     : GPa
 output     inv_length unit                     : 1/A
 output      frequency unit                     : cm-1
 output force constant unit                     : eV/A**2
 output         volume unit                     : A**3
 output   IR intensity unit                     : (D/A)**2/amu
 output         dipole unit                     : D
 output         efield unit                     : eV/A/e
 output        entropy unit                     : J/mol/K
  
 wavefunctions paging                           : none
 random number generator seed                   : randomised (84641420)
 data distribution                              : optimal for this architecture
 optimization strategy                          : maximize speed(+++)

 *********************** Exchange-Correlation Parameters ***********************
  
 using functional                               : Perdew Burke Ernzerhof
 relativistic treatment                         : Koelling-Harmon
 DFT+D: Semi-empirical dispersion correction    : off

 ************************* Pseudopotential Parameters **************************
  
 pseudopotential representation                 : reciprocal space
 <beta|phi> representation                      : reciprocal space
 spin-orbit coupling                            : off

 **************************** Basis Set Parameters *****************************
  
 plane wave basis set cut-off                   :   400.0000   eV
 size of standard grid                          :     1.7500
 size of   fine   gmax                          :    17.9311   1/A
 finite basis set correction                    : automatic
 number of sample energies                      :          3
           sample  spacing                      :     5.0000   eV

 **************************** Electronic Parameters ****************************
  
 number of  electrons                           :  3.000    
 net charge of system                           :  0.000    
 treating system as non-spin-polarized
 number of bands                                :          6

 ********************* Electronic Minimization Parameters **********************
  
 Method: Treating system as metallic with density mixing treatment of electrons,
         and number of  SD  steps               :          1
         and number of  CG  steps               :          4
  
 total energy / atom convergence tol.           : 0.1000E-04   eV
 eigen-energy convergence tolerance             : 0.1000E-05   eV
 max force / atom convergence tol.              : ignored
 convergence tolerance window                   :          3   cycles
 max. number of SCF cycles                      :         30
 number of fixed-spin iterations                :         10
 smearing scheme                                : Gaussian
 smearing width                                 : 0.2000       eV
 Fermi energy convergence tolerance             : 0.2721E-13   eV
 periodic dipole correction                     : NONE

 ************************** Density Mixing Parameters **************************
  
 density-mixing scheme                          : Broyden
 max. length of mixing history                  :         20
 charge density mixing amplitude                : 0.8000    
 cut-off energy for mixing                      :  400.0       eV

 *********************** Population Analysis Parameters ************************
  
 Population analysis with cutoff                :  3.000       A

 *******************************************************************************
  
 
                           -------------------------------
                                      Unit Cell
                           -------------------------------
        Real Lattice(A)                      Reciprocal Lattice(1/A)
   2.8050976   0.0000000   0.0000000        2.2399169  -1.2932166  -0.9144422
   1.4025488   2.4292857   0.0000000        0.0000000   2.5864332  -0.9144422
   1.4025488   0.8097619   2.2903526        0.0000000   0.0000000   2.7433267
 
                       Lattice parameters(A)       Cell Angles
                    a =    2.805098          alpha =   60.000000
                    b =    2.805098          beta  =   60.000000
                    c =    2.805098          gamma =   60.000000
 
                       Current cell volume =   15.607341       A**3
 
                           -------------------------------
                                     Cell Contents
                           -------------------------------
                         Total number of ions in cell =    1
                      Total number of species in cell =    1
                        Max number of any one species =    1
 
            xxxxxxxxxxxxxxxxxxxxxxxxxxxxxxxxxxxxxxxxxxxxxxxxxxxxxxxxxxxx
            x  Element    Atom        Fractional coordinates of atoms  x
            x            Number           u          v          w      x
            x----------------------------------------------------------x
            x  Al           1         0.000000   0.000000   0.000000   x 
            xxxxxxxxxxxxxxxxxxxxxxxxxxxxxxxxxxxxxxxxxxxxxxxxxxxxxxxxxxxx
 
 
                         No user defined ionic velocities
 
                           -------------------------------
                                   Details of Species
                           -------------------------------
 
                               Mass of species in AMU
                                    Al   26.9815400
 
                          Electric Quadrupole Moment (Barn)
                                    Al    0.1466000 Isotope 27
 
                          Files used for pseudopotentials:
                                    Al 3|2.0|4|4|5|30:31:32
 
                           -------------------------------
                              k-Points For BZ Sampling
                           -------------------------------
                       MP grid size for SCF calculation is 32 32 32
                            with an offset of   0.000  0.000  0.000
                       Number of kpoints used =          2992
 
                           -------------------------------
                               Symmetry and Constraints
                           -------------------------------
 
                      Maximum deviation from symmetry = 0.470004E-15     ANG
 
                      Number of symmetry operations   =          48
                      Number of ionic constraints     =           3
                      Point group of crystal =    32: Oh, m-3m, 4/m -3 2/m
                      Space group of crystal =   225: Fm-3m, -F 4 2 3
 
             Set iprint > 1 for details on symmetry rotations/translations
 
                         Centre of mass is constrained
             Set iprint > 1 for details of linear ionic constraints
 
                         Number of cell constraints= 5
                         Cell constraints are:  1 1 1 0 0 0
 
                         External pressure/stress (GPa)
                          0.00000   0.00000   0.00000
                                    0.00000   0.00000
                                              0.00000
  
+---------------- MEMORY AND SCRATCH DISK ESTIMATES PER PROCESS --------------+
|                                                     Memory          Disk    |
| Baseline code, static data and system overhead       92.0 MB         0.0 MB |
| BLAS internal memory storage                          0.0 MB         0.0 MB |
| Model and support data                               43.6 MB         0.0 MB |
| Electronic energy minimisation requirements          16.0 MB         0.0 MB |
| Force calculation requirements                        0.8 MB         0.0 MB |
| Stress calculation requirements                       0.9 MB         0.0 MB |
|                                               ----------------------------- |
| Approx. total storage required per process          151.6 MB         0.0 MB |
|                                                                             |
| Requirements will fluctuate during execution and may exceed these estimates |
+-----------------------------------------------------------------------------+
Calculating finite basis set correction with  3 cut-off energies.
Calculating total energy with cut-off of  390.000eV.
------------------------------------------------------------------------ <-- SCF
SCF loop      Energy           Fermi           Energy gain       Timer   <-- SCF
                               energy          per atom          (sec)   <-- SCF
------------------------------------------------------------------------ <-- SCF
Initial   2.02416378E+001  0.00000000E+000                        65.94  <-- SCF
      1  -1.05511873E+002  8.38680290E+000   1.25753511E+002      68.14  <-- SCF
      2  -1.10785509E+002  6.22746479E+000   5.27363602E+000      70.41  <-- SCF
      3  -1.10882485E+002  6.17807792E+000   9.69753626E-002      72.69  <-- SCF
      4  -1.10869357E+002  6.15081663E+000  -1.31271938E-002      75.71  <-- SCF
      5  -1.10866489E+002  6.13995475E+000  -2.86810068E-003      78.10  <-- SCF
      6  -1.10866497E+002  6.13968375E+000   7.59274769E-006      80.69  <-- SCF
      7  -1.10866497E+002  6.13952929E+000   4.72125304E-007      82.29  <-- SCF
------------------------------------------------------------------------ <-- SCF
 
Final energy, E             =  -110.8586764507     eV
Final free energy (E-TS)    =  -110.8664973014     eV
(energies not corrected for finite basis set)
 
NB est. 0K energy (E-0.5TS)      =  -110.8625868761     eV
 
Calculating total energy with cut-off of  395.000eV.
------------------------------------------------------------------------ <-- SCF
SCF loop      Energy           Fermi           Energy gain       Timer   <-- SCF
                               energy          per atom          (sec)   <-- SCF
------------------------------------------------------------------------ <-- SCF
Initial  -1.10858682E+002  0.00000000E+000                        82.61  <-- SCF
      1  -1.10866510E+002  6.13951819E+000   7.82846214E-003      84.32  <-- SCF
      2  -1.10866510E+002  6.13951814E+000   9.18969565E-008      85.66  <-- SCF
      3  -1.10866510E+002  6.13950831E+000   4.60343492E-008      86.93  <-- SCF
      4  -1.10866510E+002  6.13950559E+000   2.95070627E-008      88.20  <-- SCF
------------------------------------------------------------------------ <-- SCF
 
Final energy, E             =  -110.8586894449     eV
Final free energy (E-TS)    =  -110.8665103050     eV
(energies not corrected for finite basis set)
 
NB est. 0K energy (E-0.5TS)      =  -110.8625998750     eV
 
Calculating total energy with cut-off of  400.000eV.
------------------------------------------------------------------------ <-- SCF
SCF loop      Energy           Fermi           Energy gain       Timer   <-- SCF
                               energy          per atom          (sec)   <-- SCF
------------------------------------------------------------------------ <-- SCF
Initial  -1.10858695E+002  0.00000000E+000                        88.55  <-- SCF
      1  -1.10866522E+002  6.13950542E+000   7.82709499E-003      90.66  <-- SCF
      2  -1.10866522E+002  6.13950540E+000   2.64769530E-008      92.31  <-- SCF
      3  -1.10866522E+002  6.13949639E+000   8.05127406E-009      93.95  <-- SCF
      4  -1.10866522E+002  6.13949450E+000   5.09526521E-009      95.58  <-- SCF
------------------------------------------------------------------------ <-- SCF
 
Final energy, E             =  -110.8587009725     eV
Final free energy (E-TS)    =  -110.8665218322     eV
(energies not corrected for finite basis set)
 
NB est. 0K energy (E-0.5TS)      =  -110.8626114023     eV
 
 For future reference: finite basis dEtot/dlog(Ecut) =      -0.000967eV
 Total energy corrected for finite basis set =    -110.866522 eV
 
 ***************** Symmetrised Forces *****************
 *                                                    *
 *            Cartesian components (eV/A)             *
 * -------------------------------------------------- *
 *                   x            y            z      *
 *                                                    *
 * Al        1      0.00000      0.00000      0.00000 *
 *                                                    *
 ******************************************************
 
 *********** Symmetrised Stress Tensor ***********
 *                                               *
 *          Cartesian components (GPa)           *
 * --------------------------------------------- *
 *             x             y             z     *
 *                                               *
 *  x     -4.816605      0.000000     -0.000000  *
 *  y      0.000000     -4.816605     -0.000000  *
 *  z     -0.000000     -0.000000     -4.816605  *
 *                                               *
 *  Pressure:    4.8166                          *
 *                                               *
 *************************************************
 
 Pseudo atomic calculation performed for Al 3s2 3p1
 
 Converged in 14 iterations to a total energy of -107.1299 eV
 
Charge spilling parameter for spin component 1 = 1.50%
 
     Atomic Populations (Mulliken)
     -----------------------------
Species   Ion     s      p      d      f     Total  Charge (e)
==============================================================
  Al       1     1.08   1.92   0.00   0.00   3.00     0.00
==============================================================
 
            Bond              Population      Length (A)
============================================================
============================================================
 

Writing analysis data to A1.castep_bin

Writing model to A1.check
 
 A BibTeX formatted list of references used in this run has been written to 
 A1.bib
 
Initialisation time =     58.12 s
Calculation time    =     34.11 s
Finalisation time   =     26.78 s
Total time          =    119.01 s
Peak Memory Use     = 438048 kB
  
Overall parallel efficiency rating: Mediocre (53%)                              
  
Data was distributed by:-
k-point (12-way); efficiency rating: Mediocre (54%)                             
  
Parallel notes:
1) Calculation only took 98.4 s, so efficiency estimates may be inaccurate.     
