 +-------------------------------------------------+
 |                                                 |
 |      CCC   AA    SSS  TTTTT  EEEEE  PPPP        |
 |     C     A  A  S       T    E      P   P       |
 |     C     AAAA   SS     T    EEE    PPPP        |
 |     C     A  A     S    T    E      P           |
 |      CCC  A  A  SSS     T    EEEEE  P           |
 |                                                 |
 +-------------------------------------------------+
 |                                                 |
 | Welcome to Academic Release CASTEP version 16.11|          
 | Ab Initio Total Energy Program                  |
 |                                                 |
 | Authors:                                        |
 | M. Segall, M. Probert, C. Pickard, P. Hasnip,   |
 | S. Clark, K. Refson, J. R. Yates, M. Payne      |
 |                                                 |
 | Contributors:                                   |
 | P. Lindan, P. Haynes, J. White, V. Milman,      |
 | N. Govind, M. Gibson, P. Tulip, V. Cocula,      |
 | B. Montanari, D. Quigley, M. Glover,            |
 | L. Bernasconi, A. Perlov, M. Plummer,           |
 | E. McNellis, J. Meyer, J. Gale, D. Jochym       |
 | J. Aarons, B. Walker, R. Gillen, D. Jones       |
 | T. Green, I. J. Bush, C. J. Armstrong,          |
 | E. J. Higgins, E. L. Brown, M. S. McFly         |
 |                                                 |
 | Copyright (c) 2000 - 2015                       |
 |                                                 |
 |     Distributed under the terms of an           |
 |     Agreement between the United Kingdom        |
 |     Car-Parrinello (UKCP) Consortium,           |
 |     Daresbury Laboratory and Accelrys, Inc.     |
 |                                                 |
 | Please cite                                     |
 |                                                 |
 |     "First principles methods using CASTEP"     |
 |                                                 |
 |         Zeitschrift fuer Kristallographie       |
 |           220(5-6) pp. 567-570 (2005)           |
 |                                                 |
 | S. J. Clark, M. D. Segall, C. J. Pickard,       |
 | P. J. Hasnip, M. J. Probert, K. Refson,         |
 | M. C. Payne                                     |
 |                                                 |
 |       in all publications arising from          |
 |              your use of CASTEP                 |
 |                                                 |
 +-------------------------------------------------+
 
 
 Compiled for linux_x86_64_ifort15-XT on Mon, 23 May 2016 18:22:11 +0100
 from code version 
 203e84763863+ Castep161_branch Fri, 04 Mar 2016 19:21:07 +0000
 Compiler: Intel Fortran 15.0.2.164; Optimisation: fast
 MATHLIBS: Intel MKL(11.2.2) (LAPACK version 3.5.0)
 FFT Lib : fftw3 version commercial-fftw-3.3.4-sse2-avx
 Fundamental constants values: CODATA 2010
 
 Run started: Mon, 30 Jan 2017 08:46:33 +0000
 
 Atomic calculation performed for Al: 1s2 2s2 2p6 3s2 3p1
 
 Converged in 54 iterations to an ae energy of -6603.782 eV
 
   ============================================================                
   | Pseudopotential Report - Date of generation 30-01-2017   |                
   ------------------------------------------------------------                
   | Element: Al Ionic charge:  3.00 Level of theory: PBE     |                
   | Atomic Solver: Koelling-Harmon                           |                
   |                                                          |                
   |               Reference Electronic Structure             |                
   |         Orbital         Occupation         Energy        |                
   |            3s              2.000           -0.285        |                
   |            3p              1.000           -0.100        |                
   |                                                          |                
   |                 Pseudopotential Definition               |                
   |        Beta     l      e      Rc     scheme   norm       |                
   |          1      0   -0.285   2.000     qc      0         |                
   |          2      0    0.250   2.000     qc      0         |                
   |          3      1   -0.100   2.000     qc      0         |                
   |          4      1    0.250   2.000     qc      0         |                
   |          5      2    0.000   2.000     qc      0         |                
   |          6      2    0.250   2.000     qc      0         |                
   |         loc     3    0.000   2.000     pn      0         |                
   |                                                          |                
   | Augmentation charge Rinner = 1.398                       |                
   | Partial core correction Rc = 1.398                       |                
   ------------------------------------------------------------                
   | "3|2.0|4|4|5|30:31:32"                                   |                
   ------------------------------------------------------------                
   |      Author: Chris J. Pickard, Cambridge University      |                
   ============================================================                
 
 Pseudo atomic calculation performed for Al 3s2 3p1
 
 Converged in 14 iterations to a total energy of -107.1299 eV
 
 Calculation parallelised over 12 processes.
 Data is distributed by k-point(12-way)

 ************************************ Title ************************************
 

 ***************************** General Parameters ******************************
  
 output verbosity                               : normal  (1)
 write checkpoint data to                       : A3.check
 type of calculation                            : single point energy
 stress calculation                             : on
 density difference calculation                 : off
 electron localisation func (ELF) calculation   : off
 Hirshfeld analysis                             : off
 unlimited duration calculation
 timing information                             : on
 memory usage estimate                          : on
 write final potential to formatted file        : off
 write final density to formatted file          : on
 write BibTeX reference list                    : on
 write OTFG pseudopotential files               : on
 checkpoint writing                             : both castep_bin and check files
  
 output         length unit                     : A
 output           mass unit                     : amu
 output           time unit                     : ps
 output         charge unit                     : e
 output           spin unit                     : hbar/2
 output         energy unit                     : eV
 output          force unit                     : eV/A
 output       velocity unit                     : A/ps
 output       pressure unit                     : GPa
 output     inv_length unit                     : 1/A
 output      frequency unit                     : cm-1
 output force constant unit                     : eV/A**2
 output         volume unit                     : A**3
 output   IR intensity unit                     : (D/A)**2/amu
 output         dipole unit                     : D
 output         efield unit                     : eV/A/e
 output        entropy unit                     : J/mol/K
  
 wavefunctions paging                           : none
 random number generator seed                   : randomised (84633762)
 data distribution                              : optimal for this architecture
 optimization strategy                          : maximize speed(+++)

 *********************** Exchange-Correlation Parameters ***********************
  
 using functional                               : Perdew Burke Ernzerhof
 relativistic treatment                         : Koelling-Harmon
 DFT+D: Semi-empirical dispersion correction    : off

 ************************* Pseudopotential Parameters **************************
  
 pseudopotential representation                 : reciprocal space
 <beta|phi> representation                      : reciprocal space
 spin-orbit coupling                            : off

 **************************** Basis Set Parameters *****************************
  
 plane wave basis set cut-off                   :   400.0000   eV
 size of standard grid                          :     1.7500
 size of   fine   gmax                          :    17.9311   1/A
 finite basis set correction                    : automatic
 number of sample energies                      :          3
           sample  spacing                      :     5.0000   eV

 **************************** Electronic Parameters ****************************
  
 number of  electrons                           :  6.000    
 net charge of system                           :  0.000    
 treating system as non-spin-polarized
 number of bands                                :          7

 ********************* Electronic Minimization Parameters **********************
  
 Method: Treating system as metallic with density mixing treatment of electrons,
         and number of  SD  steps               :          1
         and number of  CG  steps               :          4
  
 total energy / atom convergence tol.           : 0.1000E-04   eV
 eigen-energy convergence tolerance             : 0.1000E-05   eV
 max force / atom convergence tol.              : ignored
 convergence tolerance window                   :          3   cycles
 max. number of SCF cycles                      :         30
 number of fixed-spin iterations                :         10
 smearing scheme                                : Gaussian
 smearing width                                 : 0.2000       eV
 Fermi energy convergence tolerance             : 0.2721E-13   eV
 periodic dipole correction                     : NONE

 ************************** Density Mixing Parameters **************************
  
 density-mixing scheme                          : Broyden
 max. length of mixing history                  :         20
 charge density mixing amplitude                : 0.8000    
 cut-off energy for mixing                      :  400.0       eV

 *********************** Population Analysis Parameters ************************
  
 Population analysis with cutoff                :  3.000       A

 *******************************************************************************
  
 
                           -------------------------------
                                      Unit Cell
                           -------------------------------
        Real Lattice(A)                      Reciprocal Lattice(1/A)
   2.7991741   0.0000000   0.0000000        2.2446568   1.2959532   0.0000000
  -1.3995871   2.4241559   0.0000000        0.0000000   2.5919064   0.0000000
   0.0000000   0.0000000   4.6400993        0.0000000   0.0000000   1.3541058
 
                       Lattice parameters(A)       Cell Angles
                    a =    2.799174          alpha =   90.000000
                    b =    2.799174          beta  =   90.000000
                    c =    4.640099          gamma =  120.000000
 
                       Current cell volume =   31.486018       A**3
 
                           -------------------------------
                                     Cell Contents
                           -------------------------------
                         Total number of ions in cell =    2
                      Total number of species in cell =    1
                        Max number of any one species =    2
 
            xxxxxxxxxxxxxxxxxxxxxxxxxxxxxxxxxxxxxxxxxxxxxxxxxxxxxxxxxxxx
            x  Element    Atom        Fractional coordinates of atoms  x
            x            Number           u          v          w      x
            x----------------------------------------------------------x
            x  Al           1         0.000000   0.000000   0.000000   x 
            x  Al           2         0.666667   0.333333   0.500000   x 
            xxxxxxxxxxxxxxxxxxxxxxxxxxxxxxxxxxxxxxxxxxxxxxxxxxxxxxxxxxxx
 
 
                         No user defined ionic velocities
 
                           -------------------------------
                                   Details of Species
                           -------------------------------
 
                               Mass of species in AMU
                                    Al   26.9815400
 
                          Electric Quadrupole Moment (Barn)
                                    Al    0.1466000 Isotope 27
 
                          Files used for pseudopotentials:
                                    Al 3|2.0|4|4|5|30:31:32
 
                           -------------------------------
                              k-Points For BZ Sampling
                           -------------------------------
                       MP grid size for SCF calculation is 32 32 32
                            with an offset of   0.000  0.000  0.000
                       Number of kpoints used =          4352
 
                           -------------------------------
                               Symmetry and Constraints
                           -------------------------------
 
                      Maximum deviation from symmetry = 0.353450E-06     ANG
 
 !-----------------------------------------------------------------------------!
 !                                                                             !
 !                     * * *      W A R N I N G     * * *                      !
 !                                                                             !
 !   Atomic positions are slightly inconsistent with symmetry operations,      !
 !   (although the discrepancy is lower than value of SYMMETRY_TOL).           !
  !   In severe cases this could lead to seriously inaccurate results.         !
 !                                                                             !
 !   It is recommended that symmetries are satisfied to a tolerance of 1e-8au  !
 !   or better. Consider one or more of the following:                         !
 !     - Adjust input so that atomic positions and symmetry are consistent.    !
 !     - Use SNAP_TO_SYMMETRY keyword in the cell file to adjust co-ordinates. !
 !     - Reduce the value of SYMMETRY_TOL in the cell file.                    !
 !     - Remove incorrect symmetry operations from .cell file.                 !
 !                                                                             !
 !-----------------------------------------------------------------------------!
 
 
                      Number of symmetry operations   =          24
                      Number of ionic constraints     =           3
                      Point group of crystal =    27: D6h, 6/mmm, 6/m 2/m 2/m
                      Space group of crystal =   194: P6_3/mmc, -P 6c 2c
 
             Set iprint > 1 for details on symmetry rotations/translations
 
                         Centre of mass is constrained
             Set iprint > 1 for details of linear ionic constraints
 
                         Number of cell constraints= 4
                         Cell constraints are:  1 1 3 0 0 0
 
                         External pressure/stress (GPa)
                          0.00000   0.00000   0.00000
                                    0.00000   0.00000
                                              0.00000
  
+---------------- MEMORY AND SCRATCH DISK ESTIMATES PER PROCESS --------------+
|                                                     Memory          Disk    |
| Baseline code, static data and system overhead       93.0 MB         0.0 MB |
| BLAS internal memory storage                          0.0 MB         0.0 MB |
| Model and support data                               85.1 MB         0.0 MB |
| Electronic energy minimisation requirements          51.8 MB         0.0 MB |
| Force calculation requirements                        0.9 MB         0.0 MB |
| Stress calculation requirements                       1.1 MB         0.0 MB |
|                                               ----------------------------- |
| Approx. total storage required per process          229.9 MB         0.0 MB |
|                                                                             |
| Requirements will fluctuate during execution and may exceed these estimates |
+-----------------------------------------------------------------------------+
Calculating finite basis set correction with  3 cut-off energies.
Calculating total energy with cut-off of  390.000eV.
------------------------------------------------------------------------ <-- SCF
SCF loop      Energy           Fermi           Energy gain       Timer   <-- SCF
                               energy          per atom          (sec)   <-- SCF
------------------------------------------------------------------------ <-- SCF
Initial   4.05860895E+001  0.00000000E+000                        43.72  <-- SCF
 Warning: There are no empty bands for at least one kpoint and spin; this may
          slow the convergence and/or lead to an inaccurate groundstate.
          If this warning persists, you should consider increasing nextra_bands
          and/or reducing smearing_width in the param file.
          Recommend using nextra_bands of 5 to 8.                               
  
      1  -2.05397591E+002  9.34066129E+000   1.22991841E+002      50.65  <-- SCF
      2  -2.21071086E+002  6.29544539E+000   7.83674724E+000      57.86  <-- SCF
      3  -2.21695711E+002  6.10193596E+000   3.12312335E-001      64.56  <-- SCF
      4  -2.21675022E+002  6.07007935E+000  -1.03443204E-002      73.37  <-- SCF
      5  -2.21669154E+002  6.05773769E+000  -2.93411551E-003      83.94  <-- SCF
      6  -2.21669200E+002  6.05733383E+000   2.32346670E-005      92.56  <-- SCF
      7  -2.21669201E+002  6.05711668E+000   2.44249331E-007      97.62  <-- SCF
      8  -2.21669201E+002  6.05710549E+000   1.02832676E-007     102.19  <-- SCF
------------------------------------------------------------------------ <-- SCF
 
Final energy, E             =  -221.6530730228     eV
Final free energy (E-TS)    =  -221.6692009238     eV
(energies not corrected for finite basis set)
 
NB est. 0K energy (E-0.5TS)      =  -221.6611369733     eV
 
Calculating total energy with cut-off of  395.000eV.
------------------------------------------------------------------------ <-- SCF
SCF loop      Energy           Fermi           Energy gain       Timer   <-- SCF
                               energy          per atom          (sec)   <-- SCF
------------------------------------------------------------------------ <-- SCF
Initial  -2.21653060E+002  0.00000000E+000                       103.37  <-- SCF
      1  -2.21669225E+002  6.05710459E+000   8.08260509E-003     108.68  <-- SCF
      2  -2.21669225E+002  6.05710457E+000   4.93033168E-008     113.08  <-- SCF
      3  -2.21669225E+002  6.05709538E+000   2.57476665E-008     117.44  <-- SCF
      4  -2.21669225E+002  6.05709361E+000   1.20770319E-008     121.80  <-- SCF
------------------------------------------------------------------------ <-- SCF
 
Final energy, E             =  -221.6530975495     eV
Final free energy (E-TS)    =  -221.6692254460     eV
(energies not corrected for finite basis set)
 
NB est. 0K energy (E-0.5TS)      =  -221.6611614978     eV
 
Calculating total energy with cut-off of  400.000eV.
------------------------------------------------------------------------ <-- SCF
SCF loop      Energy           Fermi           Energy gain       Timer   <-- SCF
                               energy          per atom          (sec)   <-- SCF
------------------------------------------------------------------------ <-- SCF
Initial  -2.21653085E+002  0.00000000E+000                       122.99  <-- SCF
      1  -2.21669248E+002  6.05709326E+000   8.08160039E-003     128.12  <-- SCF
      2  -2.21669248E+002  6.05709325E+000   3.29400865E-008     132.45  <-- SCF
      3  -2.21669248E+002  6.05708487E+000   1.55162912E-008     136.74  <-- SCF
      4  -2.21669248E+002  6.05708337E+000   5.95914640E-009     141.03  <-- SCF
------------------------------------------------------------------------ <-- SCF
 
Final energy, E             =  -221.6531199534     eV
Final free energy (E-TS)    =  -221.6692478447     eV
(energies not corrected for finite basis set)
 
NB est. 0K energy (E-0.5TS)      =  -221.6611838990     eV
 
 For future reference: finite basis dEtot/dlog(Ecut) =      -0.001854eV
 Total energy corrected for finite basis set =    -221.669248 eV
 
 ***************** Symmetrised Forces *****************
 *                                                    *
 *            Cartesian components (eV/A)             *
 * -------------------------------------------------- *
 *                   x            y            z      *
 *                                                    *
 * Al        1      0.00000      0.00000      0.00000 *
 * Al        2      0.00000      0.00000      0.00000 *
 *                                                    *
 ******************************************************
 
 *********** Symmetrised Stress Tensor ***********
 *                                               *
 *          Cartesian components (GPa)           *
 * --------------------------------------------- *
 *             x             y             z     *
 *                                               *
 *  x     -4.777712     -0.000000      0.000000  *
 *  y     -0.000000     -4.777712      0.000000  *
 *  z      0.000000      0.000000     -4.369516  *
 *                                               *
 *  Pressure:    4.6416                          *
 *                                               *
 *************************************************
 
 Pseudo atomic calculation performed for Al 3s2 3p1
 
 Converged in 14 iterations to a total energy of -107.1299 eV
 
Charge spilling parameter for spin component 1 = 1.67%
 
     Atomic Populations (Mulliken)
     -----------------------------
Species   Ion     s      p      d      f     Total  Charge (e)
==============================================================
  Al       1     1.11   1.89   0.00   0.00   3.00     0.00
  Al       2     1.11   1.89   0.00   0.00   3.00     0.00
==============================================================
 
            Bond              Population      Length (A)
============================================================
============================================================
 

Writing analysis data to A3.castep_bin

Writing model to A3.check
 
 A BibTeX formatted list of references used in this run has been written to 
 A3.bib
 
Initialisation time =     41.56 s
Calculation time    =    107.87 s
Finalisation time   =     16.34 s
Total time          =    165.76 s
Peak Memory Use     = 599936 kB
  
Overall parallel efficiency rating: Good (73%)                                  
  
Data was distributed by:-
k-point (12-way); efficiency rating: Good (75%)                                 
  
Parallel notes:
1) Calculation only took 149.4 s, so efficiency estimates may be inaccurate.    
