 +-------------------------------------------------+
 |                                                 |
 |      CCC   AA    SSS  TTTTT  EEEEE  PPPP        |
 |     C     A  A  S       T    E      P   P       |
 |     C     AAAA   SS     T    EEE    PPPP        |
 |     C     A  A     S    T    E      P           |
 |      CCC  A  A  SSS     T    EEEEE  P           |
 |                                                 |
 +-------------------------------------------------+
 |                                                 |
 | Welcome to Academic Release CASTEP version 16.1 |          
 | Ab Initio Total Energy Program                  |
 |                                                 |
 | Authors:                                        |
 | M. Segall, M. Probert, C. Pickard, P. Hasnip,   |
 | S. Clark, K. Refson, J. R. Yates, M. Payne      |
 |                                                 |
 | Contributors:                                   |
 | P. Lindan, P. Haynes, J. White, V. Milman,      |
 | N. Govind, M. Gibson, P. Tulip, V. Cocula,      |
 | B. Montanari, D. Quigley, M. Glover,            |
 | L. Bernasconi, A. Perlov, M. Plummer,           |
 | E. McNellis, J. Meyer, J. Gale, D. Jochym       |
 | J. Aarons, B. Walker, R. Gillen, D. Jones       |
 | T. Green, I. J. Bush, C. J. Armstrong,          |
 | E. J. Higgins, E. L. Brown, M. S. McFly         |
 |                                                 |
 | Copyright (c) 2000 - 2015                       |
 |                                                 |
 |     Distributed under the terms of an           |
 |     Agreement between the United Kingdom        |
 |     Car-Parrinello (UKCP) Consortium,           |
 |     Daresbury Laboratory and Accelrys, Inc.     |
 |                                                 |
 | Please cite                                     |
 |                                                 |
 |     "First principles methods using CASTEP"     |
 |                                                 |
 |         Zeitschrift fuer Kristallographie       |
 |           220(5-6) pp. 567-570 (2005)           |
 |                                                 |
 | S. J. Clark, M. D. Segall, C. J. Pickard,       |
 | P. J. Hasnip, M. J. Probert, K. Refson,         |
 | M. C. Payne                                     |
 |                                                 |
 |       in all publications arising from          |
 |              your use of CASTEP                 |
 |                                                 |
 +-------------------------------------------------+
 
 
 Compiled for linux_x86_64_ifort15 on Mon, 22 Aug 2016 09:38:05 +0100
 from code version 656ba4f04705+  Thu, 19 Nov 2015 16:58:50 +0000
 Compiler: Intel Fortran 15.0.5.223; Optimisation: fast
 MATHLIBS: Intel MKL(11.3.1) (LAPACK version 3.5.0)
 FFT Lib : default
 Fundamental constants values: CODATA 2010
 
 Run started: Wed, 07 Sep 2016 20:37:39 +0100
 
 Atomic calculation performed for Al: 1s2 2s2 2p6 3s2 3p1
 
 Converged in 54 iterations to an ae energy of -6603.782 eV
 
   ============================================================                
   | Pseudopotential Report - Date of generation  7-09-2016   |                
   ------------------------------------------------------------                
   | Element: Al Ionic charge:  3.00 Level of theory: PBE     |                
   | Atomic Solver: Koelling-Harmon                           |                
   |                                                          |                
   |               Reference Electronic Structure             |                
   |         Orbital         Occupation         Energy        |                
   |            3s              2.000           -0.285        |                
   |            3p              1.000           -0.100        |                
   |                                                          |                
   |                 Pseudopotential Definition               |                
   |        Beta     l      e      Rc     scheme   norm       |                
   |          1      0   -0.285   2.000     qc      0         |                
   |          2      0    0.250   2.000     qc      0         |                
   |          3      1   -0.100   2.000     qc      0         |                
   |          4      1    0.250   2.000     qc      0         |                
   |          5      2    0.000   2.000     qc      0         |                
   |          6      2    0.250   2.000     qc      0         |                
   |         loc     3    0.000   2.000     pn      0         |                
   |                                                          |                
   | Augmentation charge Rinner = 1.398                       |                
   | Partial core correction Rc = 1.398                       |                
   ------------------------------------------------------------                
   | "3|2.0|4|4|5|30:31:32"                                   |                
   ------------------------------------------------------------                
   |      Author: Chris J. Pickard, Cambridge University      |                
   ============================================================                
 
 Pseudo atomic calculation performed for Al 3s2 3p1
 
 Converged in 14 iterations to a total energy of -107.1300 eV
 
 Calculation not parallelised.

 ************************************ Title ************************************
 

 ***************************** General Parameters ******************************
  
 output verbosity                               : normal  (1)
 write checkpoint data to                       : Al.check
 type of calculation                            : single point energy
 stress calculation                             : off
 density difference calculation                 : off
 electron localisation func (ELF) calculation   : off
 Hirshfeld analysis                             : off
 unlimited duration calculation
 timing information                             : on
 memory usage estimate                          : on
 write final potential to formatted file        : off
 write final density to formatted file          : on
 write BibTeX reference list                    : on
 write OTFG pseudopotential files               : on
 checkpoint writing                             : both castep_bin and check files
  
 output         length unit                     : A
 output           mass unit                     : amu
 output           time unit                     : ps
 output         charge unit                     : e
 output           spin unit                     : hbar/2
 output         energy unit                     : eV
 output          force unit                     : eV/A
 output       velocity unit                     : A/ps
 output       pressure unit                     : GPa
 output     inv_length unit                     : 1/A
 output      frequency unit                     : cm-1
 output force constant unit                     : eV/A**2
 output         volume unit                     : A**3
 output   IR intensity unit                     : (D/A)**2/amu
 output         dipole unit                     : D
 output         efield unit                     : eV/A/e
 output        entropy unit                     : J/mol/K
  
 wavefunctions paging                           : none
 random number generator seed                   : randomised (203740488)
 data distribution                              : optimal for this architecture
 optimization strategy                          : maximize speed(+++)

 *********************** Exchange-Correlation Parameters ***********************
  
 using functional                               : Perdew Burke Ernzerhof
 relativistic treatment                         : Koelling-Harmon
 DFT+D: Semi-empirical dispersion correction    : off

 ************************* Pseudopotential Parameters **************************
  
 pseudopotential representation                 : reciprocal space
 <beta|phi> representation                      : reciprocal space
 spin-orbit coupling                            : off

 **************************** Basis Set Parameters *****************************
  
 plane wave basis set cut-off                   :   400.0000   eV
 size of standard grid                          :     1.7500
 size of   fine   gmax                          :    17.9311   1/A
 finite basis set correction                    : none

 **************************** Electronic Parameters ****************************
  
 number of  electrons                           :  12.00    
 net charge of system                           :  0.000    
 treating system as non-spin-polarized
 number of bands                                :         10

 ********************* Electronic Minimization Parameters **********************
  
 Method: Treating system as metallic with density mixing treatment of electrons,
         and number of  SD  steps               :          1
         and number of  CG  steps               :          4
  
 total energy / atom convergence tol.           : 0.1000E-04   eV
 eigen-energy convergence tolerance             : 0.1000E-05   eV
 max force / atom convergence tol.              : ignored
 convergence tolerance window                   :          3   cycles
 max. number of SCF cycles                      :         30
 number of fixed-spin iterations                :         10
 smearing scheme                                : Gaussian
 smearing width                                 : 0.2000       eV
 Fermi energy convergence tolerance             : 0.2721E-13   eV
 periodic dipole correction                     : NONE

 ************************** Density Mixing Parameters **************************
  
 density-mixing scheme                          : Broyden
 max. length of mixing history                  :         20
 charge density mixing amplitude                : 0.8000    
 cut-off energy for mixing                      :  400.0       eV

 *********************** Population Analysis Parameters ************************
  
 Population analysis with cutoff                :  3.000       A

 *******************************************************************************
  
 
                           -------------------------------
                                      Unit Cell
                           -------------------------------
        Real Lattice(A)                      Reciprocal Lattice(1/A)
   4.0533333   0.0000000   0.0000000        1.5501280   0.0000000   0.0000000
   0.0000000   4.0533333   0.0000000        0.0000000   1.5501280   0.0000000
   0.0000000   0.0000000   4.0533333        0.0000000   0.0000000   1.5501280
 
                       Lattice parameters(A)       Cell Angles
                    a =    4.053333          alpha =   90.000000
                    b =    4.053333          beta  =   90.000000
                    c =    4.053333          gamma =   90.000000
 
                       Current cell volume =   66.594285       A**3
 
                           -------------------------------
                                     Cell Contents
                           -------------------------------
                         Total number of ions in cell =    4
                      Total number of species in cell =    1
                        Max number of any one species =    4
 
            xxxxxxxxxxxxxxxxxxxxxxxxxxxxxxxxxxxxxxxxxxxxxxxxxxxxxxxxxxxx
            x  Element    Atom        Fractional coordinates of atoms  x
            x            Number           u          v          w      x
            x----------------------------------------------------------x
            x  Al           1         0.000000   0.000000   0.000000   x 
            x  Al           2         0.000000   0.500000   0.500000   x 
            x  Al           3         0.500000   0.000000   0.500000   x 
            x  Al           4         0.500000   0.500000   0.000000   x 
            xxxxxxxxxxxxxxxxxxxxxxxxxxxxxxxxxxxxxxxxxxxxxxxxxxxxxxxxxxxx
 
 
                         No user defined ionic velocities
 
                           -------------------------------
                                   Details of Species
                           -------------------------------
 
                               Mass of species in AMU
                                    Al   26.9815400
 
                          Electric Quadrupole Moment (Barn)
                                    Al    0.1466000 Isotope 27
 
                          Files used for pseudopotentials:
                                    Al 3|2.0|4|4|5|30:31:32
 
                           -------------------------------
                              k-Points For BZ Sampling
                           -------------------------------
                       MP grid size for SCF calculation is 32 32 32
                            with an offset of   0.000  0.000  0.000
                       Number of kpoints used =           816
 
                           -------------------------------
                               Symmetry and Constraints
                           -------------------------------
 
                      Cell is a supercell containing 4 primitive cells
                      Maximum deviation from symmetry = 0.500025E-06     ANG
 
 !-----------------------------------------------------------------------------!
 !                                                                             !
 !                     * * *      W A R N I N G     * * *                      !
 !                                                                             !
 !   Atomic positions are slightly inconsistent with symmetry operations,      !
 !   (although the discrepancy is lower than value of SYMMETRY_TOL).           !
  !   In severe cases this could lead to seriously inaccurate results.         !
 !                                                                             !
 !   It is recommended that symmetries are satisfied to a tolerance of 1e-8au  !
 !   or better. Consider one or more of the following:                         !
 !     - Adjust input so that atomic positions and symmetry are consistent.    !
 !     - Use SNAP_TO_SYMMETRY keyword in the cell file to adjust co-ordinates. !
 !     - Reduce the value of SYMMETRY_TOL in the cell file.                    !
 !     - Remove incorrect symmetry operations from .cell file.                 !
 !                                                                             !
 !-----------------------------------------------------------------------------!
 
 
                      Number of symmetry operations   =         192
                      Number of ionic constraints     =           3
                      Point group of crystal =    32: Oh, m-3m, 4/m -3 2/m
                      Space group of crystal =   225: Fm-3m, -F 4 2 3
 
             Set iprint > 1 for details on symmetry rotations/translations
 
                         Centre of mass is constrained
             Set iprint > 1 for details of linear ionic constraints
 
                         Number of cell constraints= 5
                         Cell constraints are:  1 1 1 0 0 0
 
                         External pressure/stress (GPa)
                          0.00000   0.00000   0.00000
                                    0.00000   0.00000
                                              0.00000
  
+---------------- MEMORY AND SCRATCH DISK ESTIMATES PER PROCESS --------------+
|                                                     Memory          Disk    |
| Baseline code, static data and system overhead       61.0 MB         0.0 MB |
| BLAS internal memory storage                          0.0 MB         0.0 MB |
| Model and support data                              343.2 MB         0.0 MB |
| Electronic energy minimisation requirements         336.5 MB         0.0 MB |
| Force calculation requirements                        1.8 MB         0.0 MB |
|                                               ----------------------------- |
| Approx. total storage required per process          740.7 MB         0.0 MB |
|                                                                             |
| Requirements will fluctuate during execution and may exceed these estimates |
+-----------------------------------------------------------------------------+
------------------------------------------------------------------------ <-- SCF
SCF loop      Energy           Fermi           Energy gain       Timer   <-- SCF
                               energy          per atom          (sec)   <-- SCF
------------------------------------------------------------------------ <-- SCF
Initial   8.35413592E+001  0.00000000E+000                        37.71  <-- SCF
      1  -3.97992371E+002  9.51767541E+000   1.20383432E+002      75.58  <-- SCF
 Warning: There are no empty bands for at least one kpoint and spin; this may
          slow the convergence and/or lead to an inaccurate groundstate.
          If this warning persists, you should consider increasing nextra_bands
          and/or reducing smearing_width in the param file.
          Recommend using nextra_bands of 6 to 10.                              
  
      2  -4.41120012E+002  5.78057107E+000   1.07819103E+001     113.61  <-- SCF
      3  -4.43541238E+002  5.65418347E+000   6.05306590E-001     150.33  <-- SCF
 Warning: There are no empty bands for at least one kpoint and spin; this may
          slow the convergence and/or lead to an inaccurate groundstate.
          If this warning persists, you should consider increasing nextra_bands
          and/or reducing smearing_width in the param file.
          Recommend using nextra_bands of 6 to 10.                              
  
      4  -4.43525482E+002  5.62031214E+000  -3.93895171E-003     196.19  <-- SCF
 Warning: There are no empty bands for at least one kpoint and spin; this may
          slow the convergence and/or lead to an inaccurate groundstate.
          If this warning persists, you should consider increasing nextra_bands
          and/or reducing smearing_width in the param file.
          Recommend using nextra_bands of 6 to 10.                              
  
      5  -4.43515518E+002  5.60750957E+000  -2.49113308E-003     240.72  <-- SCF
 Warning: There are no empty bands for at least one kpoint and spin; this may
          slow the convergence and/or lead to an inaccurate groundstate.
          If this warning persists, you should consider increasing nextra_bands
          and/or reducing smearing_width in the param file.
          Recommend using nextra_bands of 6 to 10.                              
  
      6  -4.43515801E+002  5.60710251E+000   7.08370544E-005     289.79  <-- SCF
 Warning: There are no empty bands for at least one kpoint and spin; this may
          slow the convergence and/or lead to an inaccurate groundstate.
          If this warning persists, you should consider increasing nextra_bands
          and/or reducing smearing_width in the param file.
          Recommend using nextra_bands of 6 to 10.                              
  
      7  -4.43515803E+002  5.60687879E+000   4.82392667E-007     319.05  <-- SCF
 Warning: There are no empty bands for at least one kpoint and spin; this may
          slow the convergence and/or lead to an inaccurate groundstate.
          If this warning persists, you should consider increasing nextra_bands
          and/or reducing smearing_width in the param file.
          Recommend using nextra_bands of 6 to 10.                              
  
      8  -4.43515804E+002  5.60688263E+000   1.63713920E-007     342.83  <-- SCF
------------------------------------------------------------------------ <-- SCF
 
Final energy, E             =  -443.4830372591     eV
Final free energy (E-TS)    =  -443.5158037767     eV
(energies not corrected for finite basis set)
 
NB est. 0K energy (E-0.5TS)      =  -443.4994205179     eV
 

Writing analysis data to Al.castep_bin

Writing model to Al.check
 
 ***************** Symmetrised Forces *****************
 *                                                    *
 *            Cartesian components (eV/A)             *
 * -------------------------------------------------- *
 *                   x            y            z      *
 *                                                    *
 * Al        1      0.00000      0.00000      0.00000 *
 * Al        2      0.00000      0.00000      0.00000 *
 * Al        3      0.00000      0.00000      0.00000 *
 * Al        4      0.00000      0.00000      0.00000 *
 *                                                    *
 ******************************************************
 
 Pseudo atomic calculation performed for Al 3s2 3p1
 
 Converged in 14 iterations to a total energy of -107.1300 eV
 
Charge spilling parameter for spin component 1 = 1.83%
 
     Atomic Populations (Mulliken)
     -----------------------------
Species   Ion     s      p      d      f     Total  Charge (e)
==============================================================
  Al       1     1.13   1.87   0.00   0.00   3.00     0.00
  Al       2     1.13   1.87   0.00   0.00   3.00     0.00
  Al       3     1.13   1.87   0.00   0.00   3.00     0.00
  Al       4     1.13   1.87   0.00   0.00   3.00     0.00
==============================================================
 
            Bond              Population      Length (A)
============================================================
         Al 3 -- Al 4              0.32        2.86614
         Al 2 -- Al 4              0.32        2.86614
         Al 2 -- Al 3              0.32        2.86614
         Al 1 -- Al 4              0.32        2.86614
         Al 1 -- Al 3              0.32        2.86614
         Al 1 -- Al 2              0.32        2.86614
============================================================
 

Writing analysis data to Al.castep_bin

Writing model to Al.check
 
 A BibTeX formatted list of references used in this run has been written to 
 Al.bib
 
Initialisation time =     36.48 s
Calculation time    =    324.29 s
Finalisation time   =      2.22 s
Total time          =    362.99 s
Peak Memory Use     = 916244 kB
