 +-------------------------------------------------+
 |                                                 |
 |      CCC   AA    SSS  TTTTT  EEEEE  PPPP        |
 |     C     A  A  S       T    E      P   P       |
 |     C     AAAA   SS     T    EEE    PPPP        |
 |     C     A  A     S    T    E      P           |
 |      CCC  A  A  SSS     T    EEEEE  P           |
 |                                                 |
 +-------------------------------------------------+
 |                                                 |
 | Welcome to Academic Release CASTEP version 16.1 |          
 | Ab Initio Total Energy Program                  |
 |                                                 |
 | Authors:                                        |
 | M. Segall, M. Probert, C. Pickard, P. Hasnip,   |
 | S. Clark, K. Refson, J. R. Yates, M. Payne      |
 |                                                 |
 | Contributors:                                   |
 | P. Lindan, P. Haynes, J. White, V. Milman,      |
 | N. Govind, M. Gibson, P. Tulip, V. Cocula,      |
 | B. Montanari, D. Quigley, M. Glover,            |
 | L. Bernasconi, A. Perlov, M. Plummer,           |
 | E. McNellis, J. Meyer, J. Gale, D. Jochym       |
 | J. Aarons, B. Walker, R. Gillen, D. Jones       |
 | T. Green, I. J. Bush, C. J. Armstrong,          |
 | E. J. Higgins, E. L. Brown, M. S. McFly         |
 |                                                 |
 | Copyright (c) 2000 - 2015                       |
 |                                                 |
 |     Distributed under the terms of an           |
 |     Agreement between the United Kingdom        |
 |     Car-Parrinello (UKCP) Consortium,           |
 |     Daresbury Laboratory and Accelrys, Inc.     |
 |                                                 |
 | Please cite                                     |
 |                                                 |
 |     "First principles methods using CASTEP"     |
 |                                                 |
 |         Zeitschrift fuer Kristallographie       |
 |           220(5-6) pp. 567-570 (2005)           |
 |                                                 |
 | S. J. Clark, M. D. Segall, C. J. Pickard,       |
 | P. J. Hasnip, M. J. Probert, K. Refson,         |
 | M. C. Payne                                     |
 |                                                 |
 |       in all publications arising from          |
 |              your use of CASTEP                 |
 |                                                 |
 +-------------------------------------------------+
 
 
 Compiled for linux_x86_64_ifort15 on Tue, 24 Jan 2017 08:49:06 +0000
 from code version 656ba4f04705+  Thu, 19 Nov 2015 16:58:50 +0000
 Compiler: Intel Fortran 15.0.5.223; Optimisation: fast
 MATHLIBS: Intel MKL(10.3.2) (LAPACK version 3.2.2)
 FFT Lib : default
 Fundamental constants values: CODATA 2010
 
 Run started: Mon, 27 Mar 2017 17:30:55 +0100
 Info: number of up-spin electrons is not equal to the
       number of down-spins but spin_polarized=false
     - consider setting spin_polarized=true.
 
 Atomic calculation performed for Al: 1s2 2s2 2p6 3s2 3p1
 
 Converged in 54 iterations to an ae energy of -6603.782 eV
 
   ============================================================                
   | Pseudopotential Report - Date of generation 27-03-2017   |                
   ------------------------------------------------------------                
   | Element: Al Ionic charge:  3.00 Level of theory: PBE     |                
   | Atomic Solver: Koelling-Harmon                           |                
   |                                                          |                
   |               Reference Electronic Structure             |                
   |         Orbital         Occupation         Energy        |                
   |            3s              2.000           -0.285        |                
   |            3p              1.000           -0.100        |                
   |                                                          |                
   |                 Pseudopotential Definition               |                
   |        Beta     l      e      Rc     scheme   norm       |                
   |          1      0   -0.285   2.000     qc      0         |                
   |          2      0    0.250   2.000     qc      0         |                
   |          3      1   -0.100   2.000     qc      0         |                
   |          4      1    0.250   2.000     qc      0         |                
   |          5      2    0.000   2.000     qc      0         |                
   |          6      2    0.250   2.000     qc      0         |                
   |         loc     3    0.000   2.000     pn      0         |                
   |                                                          |                
   | Augmentation charge Rinner = 1.398                       |                
   | Partial core correction Rc = 1.398                       |                
   ------------------------------------------------------------                
   | "3|2.0|4|4|5|30:31:32"                                   |                
   ------------------------------------------------------------                
   |      Author: Chris J. Pickard, Cambridge University      |                
   ============================================================                
 
 Atomic calculation performed for Ni: 1s2 2s2 2p6 3s2 3p6 3d8 4s2
 
 Converged in 91 iterations to an ae energy of -41375.898 eV
 
   ============================================================                
   | Pseudopotential Report - Date of generation 27-03-2017   |                
   ------------------------------------------------------------                
   | Element: Ni Ionic charge: 10.00 Level of theory: PBE     |                
   | Atomic Solver: Koelling-Harmon                           |                
   |                                                          |                
   |               Reference Electronic Structure             |                
   |         Orbital         Occupation         Energy        |                
   |            3d              8.000           -0.326        |                
   |            4s              2.000           -0.207        |                
   |                                                          |                
   |                 Pseudopotential Definition               |                
   |        Beta     l      e      Rc     scheme   norm       |                
   |          1      0   -0.207   1.999     qc      0         |                
   |          2      0    0.250   1.999     qc      0         |                
   |          3      1    0.000   1.999     qc      0         |                
   |          4      1    0.250   1.999     qc      0         |                
   |          5      2   -0.326   1.999     qc      0         |                
   |          6      2    0.250   1.999     qc      0         |                
   |         loc     3    0.000   2.191     pn      0         |                
   |                                                          |                
   | Augmentation charge Rinner = 1.001                       |                
   | Partial core correction Rc = 1.001                       |                
   ------------------------------------------------------------                
   | "3|2.2|2.0|1.0|10|12|13|40:41:32(qc=6)"                  |                
   ------------------------------------------------------------                
   |      Author: Chris J. Pickard, Cambridge University      |                
   ============================================================                
 
 Pseudo atomic calculation performed for Al 3s2 3p1
 
 Converged in 14 iterations to a total energy of -107.1306 eV
 
 
 Pseudo atomic calculation performed for Ni 3d8 4s2
 
 Converged in 38 iterations to a total energy of -1355.2785 eV
 
 Calculation not parallelised.

 ************************************ Title ************************************
 

 ***************************** General Parameters ******************************
  
 output verbosity                               : normal  (1)
 write checkpoint data to                       : AlNi_ICSD_58038_a_6.check
 type of calculation                            : single point energy
 stress calculation                             : off
 density difference calculation                 : off
 electron localisation func (ELF) calculation   : off
 Hirshfeld analysis                             : off
 unlimited duration calculation
 timing information                             : on
 memory usage estimate                          : on
 write final potential to formatted file        : off
 write final density to formatted file          : on
 write BibTeX reference list                    : on
 write OTFG pseudopotential files               : on
 checkpoint writing                             : both castep_bin and check files
  
 output         length unit                     : A
 output           mass unit                     : amu
 output           time unit                     : ps
 output         charge unit                     : e
 output           spin unit                     : hbar/2
 output         energy unit                     : eV
 output          force unit                     : eV/A
 output       velocity unit                     : A/ps
 output       pressure unit                     : GPa
 output     inv_length unit                     : 1/A
 output      frequency unit                     : cm-1
 output force constant unit                     : eV/A**2
 output         volume unit                     : A**3
 output   IR intensity unit                     : (D/A)**2/amu
 output         dipole unit                     : D
 output         efield unit                     : eV/A/e
 output        entropy unit                     : J/mol/K
  
 wavefunctions paging                           : none
 random number generator seed                   : randomised (173055558)
 data distribution                              : optimal for this architecture
 optimization strategy                          : maximize speed(+++)

 *********************** Exchange-Correlation Parameters ***********************
  
 using functional                               : Perdew Burke Ernzerhof
 relativistic treatment                         : Koelling-Harmon
 DFT+D: Semi-empirical dispersion correction    : off

 ************************* Pseudopotential Parameters **************************
  
 pseudopotential representation                 : reciprocal space
 <beta|phi> representation                      : reciprocal space
 spin-orbit coupling                            : off

 **************************** Basis Set Parameters *****************************
  
 plane wave basis set cut-off                   :   600.0000   eV
 size of standard grid                          :     1.7500
 size of   fine   gmax                          :    21.9610   1/A
 finite basis set correction                    : none

 **************************** Electronic Parameters ****************************
  
 number of  electrons                           :  33.00    
 net charge of system                           :  0.000    
 treating system as non-spin-polarized
 number of bands                                :         21

 ********************* Electronic Minimization Parameters **********************
  
 Method: Treating system as metallic with density mixing treatment of electrons,
         and number of  SD  steps               :          1
         and number of  CG  steps               :          4
  
 total energy / atom convergence tol.           : 0.1000E-04   eV
 eigen-energy convergence tolerance             : 0.1000E-05   eV
 max force / atom convergence tol.              : ignored
 convergence tolerance window                   :          3   cycles
 max. number of SCF cycles                      :         30
 number of fixed-spin iterations                :         10
 smearing scheme                                : Gaussian
 smearing width                                 : 0.2000       eV
 Fermi energy convergence tolerance             : 0.2721E-13   eV
 periodic dipole correction                     : NONE

 ************************** Density Mixing Parameters **************************
  
 density-mixing scheme                          : Broyden
 max. length of mixing history                  :         20
 charge density mixing amplitude                : 0.8000    
 cut-off energy for mixing                      :  600.0       eV

 *********************** Population Analysis Parameters ************************
  
 Population analysis with cutoff                :  3.000       A

 *******************************************************************************
  
 
                           -------------------------------
                                      Unit Cell
                           -------------------------------
        Real Lattice(A)                      Reciprocal Lattice(1/A)
   3.5507355   0.0000000   0.0000000        1.7695447   0.0000000   0.0000000
   0.0000000   3.5507355   0.0000000        0.0000000   1.7695447   0.0000000
   0.0000000   0.0000000   3.5507355        0.0000000   0.0000000   1.7695447
 
                       Lattice parameters(A)       Cell Angles
                    a =    3.550735          alpha =   90.000000
                    b =    3.550735          beta  =   90.000000
                    c =    3.550735          gamma =   90.000000
 
                       Current cell volume =   44.766687       A**3
 
                           -------------------------------
                                     Cell Contents
                           -------------------------------
                         Total number of ions in cell =    4
                      Total number of species in cell =    2
                        Max number of any one species =    3
 
            xxxxxxxxxxxxxxxxxxxxxxxxxxxxxxxxxxxxxxxxxxxxxxxxxxxxxxxxxxxx
            x  Element    Atom        Fractional coordinates of atoms  x
            x            Number           u          v          w      x
            x----------------------------------------------------------x
            x  Al           1         0.000000   0.000000   0.000000   x 
            x  Ni           1         0.000000   0.500000   0.500000   x 
            x  Ni           2         0.500000   0.000000   0.500000   x 
            x  Ni           3         0.500000   0.500000   0.000000   x 
            xxxxxxxxxxxxxxxxxxxxxxxxxxxxxxxxxxxxxxxxxxxxxxxxxxxxxxxxxxxx
 
 
                         No user defined ionic velocities
 
                           -------------------------------
                                   Details of Species
                           -------------------------------
 
                               Mass of species in AMU
                                    Al   26.9815400
                                    Ni   58.6934000
 
                          Electric Quadrupole Moment (Barn)
                                    Al    0.1466000 Isotope 27
                                    Ni    0.1620000 Isotope 61
 
                          Files used for pseudopotentials:
                                    Al 3|2.0|4|4|5|30:31:32
                                    Ni 3|2.2|2.0|1.0|10|12|13|40:41:32(qc=6)
 
                           -------------------------------
                              k-Points For BZ Sampling
                           -------------------------------
                       MP grid size for SCF calculation is 32 32 32
                            with an offset of   0.000  0.000  0.000
                       Number of kpoints used =           816
 
                           -------------------------------
                               Symmetry and Constraints
                           -------------------------------
 
                      Maximum deviation from symmetry =  0.00000         ANG
 
                      Number of symmetry operations   =          48
                      Number of ionic constraints     =           3
                      Point group of crystal =    32: Oh, m-3m, 4/m -3 2/m
                      Space group of crystal =   221: Pm-3m, -P 4 2 3
 
             Set iprint > 1 for details on symmetry rotations/translations
 
                         Centre of mass is constrained
             Set iprint > 1 for details of linear ionic constraints
 
                         Number of cell constraints= 5
                         Cell constraints are:  1 1 1 0 0 0
 
                         External pressure/stress (GPa)
                          0.00000   0.00000   0.00000
                                    0.00000   0.00000
                                              0.00000
  
+---------------- MEMORY AND SCRATCH DISK ESTIMATES PER PROCESS --------------+
|                                                     Memory          Disk    |
| Baseline code, static data and system overhead       63.0 MB         0.0 MB |
| BLAS internal memory storage                          0.0 MB         0.0 MB |
| Model and support data                              663.3 MB         0.0 MB |
| Electronic energy minimisation requirements         845.0 MB         0.0 MB |
| Force calculation requirements                        2.0 MB         0.0 MB |
|                                               ----------------------------- |
| Approx. total storage required per process         1571.3 MB         0.0 MB |
|                                                                             |
| Requirements will fluctuate during execution and may exceed these estimates |
+-----------------------------------------------------------------------------+
------------------------------------------------------------------------ <-- SCF
SCF loop      Energy           Fermi           Energy gain       Timer   <-- SCF
                               energy          per atom          (sec)   <-- SCF
------------------------------------------------------------------------ <-- SCF
Initial  -3.56341627E+003  0.00000000E+000                        28.70  <-- SCF
 Warning: There are no empty bands for at least one kpoint and spin; this may
          slow the convergence and/or lead to an inaccurate groundstate.
          If this warning persists, you should consider increasing nextra_bands
          and/or reducing smearing_width in the param file.
          Recommend using nextra_bands of 7 to 15.                              
  
      1  -4.09943612E+003  9.90269874E+000   1.34004963E+002     104.05  <-- SCF
      2  -4.19481782E+003  5.60719754E+000   2.38454250E+001     174.20  <-- SCF
      3  -4.20064121E+003  5.33863241E+000   1.45584620E+000     236.65  <-- SCF
      4  -4.20284783E+003  7.68586443E+000   5.51656912E-001     299.14  <-- SCF
      5  -4.20021285E+003  5.84521759E+000  -6.58746632E-001     362.30  <-- SCF
      6  -4.20027468E+003  5.92957168E+000   1.54589215E-002     462.92  <-- SCF
      7  -4.20027412E+003  5.94039047E+000  -1.40540817E-004     533.02  <-- SCF
      8  -4.20027413E+003  5.94365165E+000   2.57580561E-006     589.87  <-- SCF
      9  -4.20027413E+003  5.94257837E+000   6.86686550E-007     632.88  <-- SCF
------------------------------------------------------------------------ <-- SCF
 
Final energy, E             =  -4200.179622814     eV
Final free energy (E-TS)    =  -4200.274133687     eV
(energies not corrected for finite basis set)
 
NB est. 0K energy (E-0.5TS)      =  -4200.226878251     eV
 

Writing analysis data to AlNi_ICSD_58038_a_6.castep_bin

Writing model to AlNi_ICSD_58038_a_6.check
 
 ***************** Symmetrised Forces *****************
 *                                                    *
 *            Cartesian components (eV/A)             *
 * -------------------------------------------------- *
 *                   x            y            z      *
 *                                                    *
 * Al        1      0.00000      0.00000      0.00000 *
 * Ni        1      0.00000      0.00000      0.00000 *
 * Ni        2      0.00000      0.00000      0.00000 *
 * Ni        3      0.00000      0.00000      0.00000 *
 *                                                    *
 ******************************************************
 
 Pseudo atomic calculation performed for Al 3s2 3p1
 
 Converged in 14 iterations to a total energy of -107.1306 eV
 
 
 Pseudo atomic calculation performed for Ni 3d8 4s2
 
 Converged in 38 iterations to a total energy of -1355.2785 eV
 
Charge spilling parameter for spin component 1 = 0.41%
 
     Atomic Populations (Mulliken)
     -----------------------------
Species   Ion     s      p      d      f     Total  Charge (e)
==============================================================
  Al       1     1.03   1.79   0.00   0.00   2.82     0.18
  Ni       1     0.76   0.55   8.75   0.00  10.06    -0.06
  Ni       2     0.76   0.55   8.75   0.00  10.06    -0.06
  Ni       3     0.76   0.55   8.75   0.00  10.06    -0.06
==============================================================
 
            Bond              Population      Length (A)
============================================================
         Ni 2 -- Ni 3             -0.66        2.51075
         Ni 1 -- Ni 3             -0.66        2.51075
         Ni 1 -- Ni 2             -0.66        2.51075
         Al 1 -- Ni 3              0.41        2.51075
         Al 1 -- Ni 2              0.41        2.51075
         Al 1 -- Ni 1              0.41        2.51075
============================================================
 

Writing analysis data to AlNi_ICSD_58038_a_6.castep_bin

Writing model to AlNi_ICSD_58038_a_6.check
 
 A BibTeX formatted list of references used in this run has been written to 
 AlNi_ICSD_58038_a_6.bib
 
Initialisation time =     26.92 s
Calculation time    =    632.98 s
Finalisation time   =      5.30 s
Total time          =    665.20 s
Peak Memory Use     = 1671300 kB
